# vtk DataFile Version 4.0
vtk output
ASCII
DATASET POLYDATA
POINTS 6774 float
-144 97 110.888 -144 97.1342 111 -143.767 97 111 
-145 97 110.926 -145 97.08 111 -145.149 97 111 
-143 96 110.858 -143 96.2847 111 -142.785 96 111 
-144 96 110.543 -145 96 110.543 -146 96.4909 111 
-146 96 110.666 -146.77 96 111 -143 95.3575 111 
-143.173 95 111 -144 95 110.666 -145 95 110.589 
-146 95 110.666 -146.77 95 111 -144 94.5091 111 
-145 94.2025 111 -146 94.5091 111 -142 97 111.73 
-142 97.2696 112 -141.129 97 112 -143 97 111.39 
-143 97.6098 112 -144 97.9788 112 -145 97.7266 112 
-146 97 111.651 -146 97.2104 112 -146.275 97 112 
-141 96 111.929 -141 96.6362 112 -140.901 96 112 
-142 96 111.5 -147 96 111.271 -147 96.3546 112 
-147.278 96 112 -141 95.9015 112 -142 95.288 112 
-143 95 111.14 -142.302 95 112 -147 95 111.271 
-147.278 95 112 -143 94.5168 112 -144 94 111.651 
-143.712 94 112 -145 94 111.181 -146 94 111.651 
-146.275 94 112 -147 94.6454 112 -144 93.7896 112 
-145 93.4912 112 -146 93.7896 112 -143 98 112.67 
-143 98.1697 113 -142.657 98 113 -144 98 112.043 
-144 98.3623 113 -144.957 98 113 -140 97 112.906 
-140 97.0985 113 -139.926 97 113 -141 97 112.057 
-141 97.5922 113 -142 97.7001 113 -145 97.9788 113 
-146 97.2358 113 -146.257 97 113 -140 96 112.815 
-139.858 96 113 -147 96.0985 113 -147.071 96 113 
-140 95.7658 113 -141 95 112.815 -140.766 95 113 
-142 95 112.321 -147.103 95 113 -141 94.8582 113 
-142 94.6045 113 -143 94.1827 113 -143.229 94 113 
-146.427 94 113 -147 94.8438 113 -144 93.3238 113 
-145 93.0268 113 -146 93.5734 113 -140 98 113.948 
-140 98.0387 114 -139.953 98 114 -141 98 113.716 
-141 98.1697 114 -142 98 113.851 -142 98.0605 114 
-143 98.2999 114 -144 98.2071 114 -144.334 98 114 
-139.514 97 114 -145 97.4796 114 -146 97 113.352 
-145.5 97 114 -139.543 96 114 -146 96.386 114 
-147 96 113.099 -146.285 96 114 -140 95 113.931 
-139.961 95 114 -147 95 113.156 -146.446 95 114 
-140 94.9613 114 -141 94.5 114 -142 94.2071 114 
-143 94 113.29 -142.334 94 114 -146.111 94 114 
-143 93.4532 114 -144 93 113.483 -143.541 93 114 
-145 93 113.15 -145.185 93 114 -146 93.8596 114 
-144 92.6266 114 -145 92.8376 114 -140 98.3335 115 
-139.549 98 115 -141 98.457 115 -142 98.4025 115 
-143 98.2782 115 -144 98 114.377 -143.459 98 115 
-139.353 97 115 -144 97.5 115 -145 97 114.48 
-144.453 97 115 -139.402 96 115 -145 96.2899 115 
-146 96 114.285 -145.219 96 115 -139.757 95 115 
-146 95 114.482 -145.482 95 115 -140 94.7742 115 
-141 94.3529 115 -142 94 114.432 -141.592 94 115 
-146 94 114.14 -145.312 94 115 -142 93.6883 115 
-143 93 114.67 -142.781 93 115 -145 93 114.305 
-144.538 93 115 -145 93.5329 115 -143 92.8173 115 
-144 92.6241 115 -140 98.2871 116 -139.645 98 116 
-141 98.5 116 -142 98.442 116 -143 98 115.983 
-142.99 98 116 -139.17 97 116 -143 97.9898 116 
-144 97 115.424 -143.517 97 116 -139.061 96 116 
-144 96 115.965 -143.967 96 116 -145 96 115.189 
-139.621 95 116 -144 95.951 116 -145 95 115.5 
-144.554 95 116 -140 94.6791 116 -141 94.1697 116 
-141.242 94 116 -145 94 115.389 -144.604 94 116 
-142 93.4461 116 -142.628 93 116 -144.08 93 116 
-143 92.7571 116 -144 92.9264 116 -140 98.2782 117 
-139.645 98 117 -141 98.442 117 -142 98.0764 117 
-142.094 98 117 -139 97 116.5 -139 97.2417 117 
-138.83 97 117 -143 97 116.747 -142.789 97 117 
-139 96 116.183 -138.757 96 117 -143 96.7709 117 
-143.676 96 117 -139 95.645 117 -139.518 95 117 
-144 95.5917 117 -144.353 95 117 -140 94.5383 117 
-141 94 116.383 -140.646 94 117 -144.353 94 117 
-141 93.6883 117 -142 93.1421 117 -142.436 93 117 
-144 93 116.177 -143.357 93 117 -144 93.4357 117 
-143 92.8303 117 -140 98.0373 118 -139.948 98 118 
-141 98 117.99 -140.866 98 118 -142 98 117.094 
-139 97.1851 118 -138.858 97 118 -141 97.9898 118 
-142 97 117.789 -141.747 97 118 -138.757 96 118 
-142 96.7709 118 -143 96.4174 118 -143.784 96 118 
-139 95.645 118 -139.518 95 118 -144 95.7975 118 
-144.411 95 118 -140 94.4765 118 -140.4 94 118 
-144.353 94 118 -141 93.2484 118 -142 93 117.287 
-141.373 93 118 -143.515 93 118 -144 93.4357 118 
-142 92.7001 118 -143 92.7001 118 -140 98 118.047 
-139 97 118.234 -140 97 118.897 -141 97 118.5 
-139 96 118.568 -139.466 96 119 -140 96.7123 119 
-141 96 118.858 -140.628 96 119 -142 96 118.676 
-143 96 118.784 -140 95.0228 119 -140 95 118.988 
-140.017 95 119 -141 95.6905 119 -142 95.6106 119 
-143 95.8189 119 -144 95.1207 119 -144.074 95 119 
-140.815 94 119 -144.219 94 119 -141 93.7781 119 
-141.778 93 119 -143.641 93 119 -144 93.4659 119 
-142 92.8533 119 -143 92.6767 119 -140 96 119.219 
-141 95 119.278 -142 95 119.396 -143 95 119.509 
-144 95 119.08 -141 94 119.147 -142 94 119.604 
-143 94 119.865 -144 94 119.294 -142 93 119.185 
-143 93 119.566 -141 102 97.6121 -141 102.611 98 
-140.145 102 98 -142 102 97.6121 -142 102.611 98 
-143 102 97.7365 -143 102.301 98 -143.873 102 98 
-140 101 97.8008 -140 101.729 98 -139.801 101 98 
-141 101 97.5 -142 101 97.5 -143 101 97.5 
-144 101.913 98 -144 101 97.6471 -144.564 101 98 
-140 100 97.8008 -139.801 100 98 -141 100 97.5 
-142 100 97.5 -143 100 97.5 -144 100 97.543 
-145 100.177 98 -145 100 97.9264 -145.08 100 98 
-140 99 97.8658 -139.871 99 98 -141 99 97.5134 
-142 99 97.5 -143 99 97.5 -144 99 97.5 
-145 99 97.6664 -145.491 99 98 -140 98.2428 98 
-140.068 98 98 -141 98 97.5454 -142 98 97.5 
-143 98 97.5 -144 98 97.5 -145 98 97.543 
-146 98.2667 98 -146 98 97.8533 -146.185 98 98 
-141 97 97.6556 -140.463 97 98 -142 97 97.5134 
-143 97 97.5 -144 97 97.5 -145 97 97.5 
-146 97 97.558 -146.99 97 98 -141 96.2617 98 
-141.214 96 98 -142 96 97.594 -143 96 97.5 
-144 96 97.5 -145 96 97.5 -146 96 97.5 
-147 96.986 98 -147 96 97.6664 -147.513 96 98 
-142 95.0777 98 -142.094 95 98 -143 95 97.6664 
-144 95 97.543 -145 95 97.5 -146 95 97.5 
-147 95 97.543 -148 95.3767 98 -148 95 97.7929 
-148.334 95 98 -143 94.4292 98 -143.532 94 98 
-144 94 97.7681 -145 94 97.543 -146 94 97.5 
-147 94 97.5 -148 94 97.543 -149 94.3338 98 
-149 94 97.7929 -149.334 94 98 -144 93.5 98 
-144.5 93 98 -145 93 97.7681 -146 93 97.543 
-147 93 97.5 -148 93 97.5 -149 93 97.543 
-150 93.3338 98 -150 93 97.7929 -150.377 93 98 
-145 92.4134 98 -145.3 92 98 -146 92 97.6471 
-147 92 97.5 -148 92 97.5 -149 92 97.5 
-150 92 97.543 -151 92.5135 98 -151 92 97.6664 
-152 92 97.9264 -152 92.08 98 -152.121 92 98 
-146 91 97.7001 -145.5 91 98 -147 91 97.5 
-148 91 97.5 -149 91 97.5 -150 91 97.5 
-151 91 97.5 -152 91 97.5888 -152.798 91 98 
-146 90 97.7001 -145.524 90 98 -147 90 97.5 
-148 90 97.5 -149 90 97.5 -150 90 97.5 
-151 90 97.543 -152 90 97.7929 -152.317 90 98 
-146 89 97.7001 -145.569 89 98 -147 89 97.5 
-148 89 97.543 -149 89 97.6471 -150 89 97.7001 
-151 89 97.8582 -151.248 89 98 -152 89.6662 98 
-146 88.0156 98 -146.019 88 98 -147 88 97.7449 
-148 88 97.9264 -148.177 88 98 -149 88.4357 98 
-150 88.5866 98 -151 88.8149 98 -147 87.699 98 
-148 87.92 98 -140 102 98.2168 -140 102.27 99 
-139.73 102 99 -141 102.647 99 -142 102.647 99 
-143 102.543 99 -144 102 98.0678 -144 102.442 99 
-145 102 98.906 -145 102.076 99 -145.094 102 99 
-139.353 101 99 -145 101 98.3797 -145.5 101 99 
-139.3 100 99 -145.658 100 99 -139.396 99 99 
-146 99.3218 99 -146 99 98.6897 -146.17 99 99 
-140 98 98.1249 -139.676 98 99 -146.658 98 99 
-140 97.1123 99 -140.045 97 99 -147 97.5452 99 
-147 97 98.0119 -147.446 97 99 -141 96 98.3508 
-140.625 96 99 -148 96 98.5886 -148 96.3114 99 
-148.263 96 99 -141 95.4952 99 -142 95 98.0662 
-141.294 95 99 -149 95 98.8871 -149 95.0727 99 
-149.066 95 99 -142 94.1103 99 -143 94 98.3117 
-142.099 94 99 -150 94 98.8871 -150 94.0662 99 
-150.073 94 99 -143 93 98.6579 -142.476 93 99 
-144 93 98.2319 -151 93 98.5886 -151 93.263 99 
-151.36 93 99 -143 92 98.8303 -142.7 92 99 
-144 92 98.5 -145 92 98.1697 -152 92.6045 99 
-153 92 98.8793 -153 92.0736 99 -153.08 92 99 
-143 91.5 99 -143.3 91 99 -144 91 98.6471 
-145 91 98.2999 -153 91 98.1727 -153.559 91 99 
-144 90 98.8303 -143.716 90 99 -145 90 98.3421 
-153 90 98.5896 -153.353 90 99 -144 89.5438 99 
-144.275 89 99 -145 89 98.4461 -152 89 98.5713 
-152.429 89 99 -153 89.5713 99 -145 88 98.7894 
-144.771 88 99 -146 88 98.007 -149 88 98.3797 
-150 88 98.5633 -151 88 98.9015 -151.104 88 99 
-152 88.6467 99 -145 87.7709 99 -146 87.2178 99 
-147 87 98.9768 -146.934 87 99 -147.066 87 99 
-148 87.2104 99 -149 87.5 99 -150 87.6579 99 
-151 87.9289 99 -147 86.9844 99 -140 102 99.8707 
-140.114 102 100 -141 102.278 100 -142 102.353 100 
-143 102.457 100 -144 102.5 100 -145 102.442 100 
-146 102 99.9501 -146 102.04 100 -146.047 102 100 
-140 101.932 100 -139.337 101 100 -146 101 99.712 
-146.21 101 100 -139.099 100 100 -146 100 99.8629 
-146.061 100 100 -139.046 99 100 -146.353 99 100 
-139.099 98 100 -146.7 98 100 -140 97 99.0536 
-139.156 97 100 -147 97.5866 100 -147.5 97 100 
-140 96 99.4206 -139.173 96 100 -148 96.4367 100 
-148.342 96 100 -140 95 99.5482 -139.183 95 100 
-141 95 99.2336 -149 95 99.2783 -148.858 95 100 
-140 94 99.6121 -139.389 94 100 -141 94 99.442 
-142 94 99.0736 -149 94.8149 100 -150 94 99.2376 
-149.781 94 100 -140 93 99.7365 -139.699 93 100 
-141 93 99.5 -142 93 99.2999 -150 93.8173 100 
-151 93.2104 100 -151.321 93 100 -140 92.1267 100 
-140.068 92 100 -141 92 99.558 -142 92 99.3529 
-152 92.6045 100 -153 92.1418 100 -153.185 92 100 
-141 91 99.9598 -140.95 91 100 -142 91 99.5487 
-143 91 99.1754 -154 91.0985 100 -154 91 99.8749 
-154.071 91 100 -141 90.9549 100 -142 90.2025 100 
-142.202 90 100 -143 90 99.4716 -154 90 99.8064 
-154.142 90 100 -143 89.2025 100 -144 89 99.2572 
-143.173 89 100 -153 89 99.6332 -153.35 89 100 
-154 89.7658 100 -144 88.08 100 -144.067 88 100 
-151.747 88 100 -152 88.1827 100 -153 88.751 100 
-145 87.1471 100 -146 87 99.3612 -145.254 87 100 
-148 87 99.3205 -149 87 99.7466 -149.5 87 100 
-150 87.1697 100 -151 87.5 100 -146 86.6579 100 
-147 86.4912 100 -148 86.6045 100 -149 86.8303 100 
-141 102.008 101 -140.986 102 101 -142 102.371 101 
-143 102.699 101 -144 102.801 101 -145 102.801 101 
[...]
POINT_DATA 6774
SCALARS scalars unsigned_short
LOOKUP_TABLE default
1 1 1 1 1 1 1 1 1 
1 1 1 1 1 1 1 1 1 
1 1 1 1 1 1 1 1 1 
1 1 1 1 1 1 1 1 1 
1 1 1 1 1 1 1 1 1 
1 1 1 1 1 1 1 1 1 
1 1 1 1 1 1 1 1 1 
1 1 1 1 1 1 1 1 1 
1 1 1 1 1 1 1 1 1 
1 1 1 1 1 1 1 1 1 
1 1 1 1 1 1 1 1 1 
1 1 1 1 1 1 1 1 1 
1 1 1 1 1 1 1 1 1 
1 1 1 1 1 1 1 1 1 
1 1 1 1 1 1 1 1 1 
1 1 1 1 1 1 1 1 1 
1 1 1 1 1 1 1 1 1 
1 1 1 1 1 1 1 1 1 
1 1 1 1 1 1 1 1 1 
1 1 1 1 1 1 1 1 1 
1 1 1 1 1 1 1 1 1 
1 1 1 1 1 1 1 1 1 
1 1 1 1 1 1 1 1 1 
1 1 1 1 1 1 1 1 1 
1 1 1 1 1 1 1 1 1 
1 1 1 1 1 1 1 1 1 
1 1 1 1 1 1 1 1 1 
1 1 1 1 1 1 1 1 1 
1 1 1 1 1 1 1 1 1 
1 1 1 1 1 1 1 1 1 
1 1 1 1 1 1 1 1 1 
1 2 2 2 2 2 2 2 2 
2 2 2 2 2 2 2 2 2 
2 2 2 2 2 2 2 2 2 
2 2 2 2 2 2 2 2 2 
2 2 2 2 2 2 2 2 2 
2 2 2 2 2 2 2 2 2 
2 2 2 2 2 2 2 2 2 
2 2 2 2 2 2 2 2 2 
2 2 2 2 2 2 2 2 2 
2 2 2 2 2 2 2 2 2 
2 2 2 2 2 2 2 2 2 
2 2 2 2 2 2 2 2 2 
2 2 2 2 2 2 2 2 2 
2 2 2 2 2 2 2 2 2 
2 2 2 2 2 2 2 2 2 
2 2 2 2 2 2 2 2 2 
2 2 2 2 2 2 2 2 2 
2 2 2 2 2 2 2 2 2 
2 2 2 2 2 2 2 2 2 
2 2 2 2 2 2 2 2 2 
2 2 2 2 2 2 2 2 2 
2 2 2 2 2 2 2 2 2 
2 2 2 2 2 2 2 2 2 
2 2 2 2 2 2 2 2 2 
2 2 2 2 2 2 2 2 2 
2 2 2 2 2 2 2 2 2 
2 2 2 2 2 2 2 2 2 
2 2 2 2 2 2 2 2 2 
2 2 2 2 2 2 2 2 2 
2 2 2 2 2 2 2 2 2 
2 2 2 2 2 2 2 2 2 
2 2 2 2 2 2 2 2 2 
2 2 2 2 2 2 2 2 2 
2 2 2 2 2 2 2 2 2 
2 2 2 2 2 2 2 2 2 
2 2 2 2 2 2 2 2 2 
2 2 2 2 2 2 2 2 2 
2 2 2 2 2 2 2 2 2 
2 2 2 2 2 2 2 2 2 
2 2 2 2 2 2 2 2 2 
2 2 2 2 2 2 2 2 2 
2 2 2 2 2 2 2 2 2 
2 2 2 2 2 2 2 2 2 
2 2 2 2 2 2 2 2 2 
2 2 2 2 2 2 2 2 2 
2 2 2 2 2 2 2 2 2 
2 2 2 2 2 2 2 2 2 
2 2 2 2 2 2 2 2 2 
2 2 2 2 2 2 2 2 2 
2 2 2 2 2 2 2 2 2 
2 2 2 2 2 2 2 2 2 
2 2 2 2 2 2 2 2 2 
2 2 2 2 2 2 2 2 2 
2 2 2 2 2 2 2 2 2 
2 2 2 2 2 2 2 2 2 
2 2 2 2 2 2 2 2 2 
2 2 2 2 2 2 2 2 2 
2 2 2 2 2 2 2 2 2 
2 2 2 2 2 2 2 2 2 
2 2 2 2 2 2 2 2 2 
2 2 2 2 2 2 2 2 2 
2 2 2 2 2 2 2 2 2 
2 2 2 2 2 2 2 2 2 
2 2 2 2 2 2 2 2 2 
2 2 2 2 2 2 2 2 2 
2 2 2 2 2 2 2 2 2 
2 2 2 2 2 2 2 2 2 
2 2 2 2 2 2 2 2 2 
2 2 2 2 2 2 2 2 2 
2 2 2 2 2 2 2 2 2 
2 2 2 2 2 2 2 2 2 
2 2 2 2 2 2 2 2 2 
2 2 2 2 2 2 2 2 2 
2 2 2 2 2 2 2 2 2 
2 2 2 2 2 2 2 2 2 
2 2 2 2 2 2 2 2 2 
2 2 2 2 2 2 2 2 2 
2 2 2 2 2 2 2 2 2 
2 2 2 2 2 2 2 2 2 
2 2 2 2 2 2 2 2 2 
2 2 2 2 2 2 2 2 2 
2 2 2 2 2 2 2 2 2 
2 2 2 2 2 2 2 2 2 
2 2 2 2 2 2 2 2 2 
2 2 2 2 2 2 2 2 2 
2 2 2 2 2 2 2 2 2 
2 2 2 2 2 2 2 2 2 
2 2 2 2 2 2 2 2 2 
2 2 2 2 2 2 2 2 2 
2 2 2 2 2 2 2 2 2 
2 2 2 2 2 2 2 2 2 
2 2 2 2 2 2 2 2 2 
2 2 2 2 2 2 2 2 2 
2 2 2 2 2 2 2 2 2 
2 2 2 2 2 2 2 2 2 
2 2 2 2 2 2 2 2 2 
2 2 2 2 2 2 2 2 2 
2 2 2 2 2 2 2 2 2 
2 2 2 2 2 2 2 2 2 
2 2 2 2 2 2 2 2 2 
2 2 2 2 2 2 2 2 2 
2 2 2 2 2 2 2 2 2 
2 2 2 2 2 2 2 2 2 
2 2 2 2 2 2 2 2 2 
2 2 2 2 2 2 2 2 2 
2 2 2 2 2 2 2 2 2 
2 2 2 2 2 2 2 2 2 
2 2 2 2 2 2 2 2 2 
2 2 2 2 2 2 2 2 2 
2 2 2 2 2 2 2 2 2 
2 2 2 2 2 2 2 2 2 
2 2 2 2 2 2 2 2 2 
2 2 2 2 2 2 2 2 2 
2 2 2 2 2 2 2 2 2 
2 2 2 2 2 2 2 2 2 
2 2 2 2 2 2 2 2 2 
2 2 2 2 2 2 2 2 2 
2 2 2 2 2 2 2 2 2 
2 2 2 2 2 2 2 2 2 
2 2 2 2 2 2 2 2 2 
2 2 2 2 2 2 2 2 2 
2 2 2 2 2 2 2 2 2 
2 2 2 2 2 2 2 2 2 
2 2 2 2 2 2 2 2 2 
2 2 2 2 2 2 2 2 2 
2 2 2 2 2 2 2 2 2 
2 2 2 2 2 2 2 2 2 
2 2 2 2 2 2 2 2 2 
2 2 2 2 2 2 2 2 2 
2 2 2 2 2 2 2 2 2 
2 2 2 2 2 2 2 2 2 
2 2 2 2 2 2 2 2 2 
2 2 2 2 2 2 2 2 2 
2 2 2 2 2 2 2 2 2 
2 2 2 2 2 2 2 2 2 
2 2 2 2 2 2 2 2 2 
2 2 2 2 2 2 2 2 2 
2 2 2 2 2 2 2 2 2 
2 2 2 2 2 2 2 2 2 
2 2 2 2 2 2 2 2 2 
2 2 2 2 2 2 2 2 2 
2 2 2 2 2 2 2 2 2 
2 2 2 2 2 2 2 2 2 
2 2 2 2 2 2 2 2 2 
2 2 2 2 2 2 2 2 2 
2 2 2 2 2 2 2 2 2 
2 2 2 2 2 2 2 2 2 
2 2 2 2 2 2 2 2 2 
2 2 2 2 2 2 2 2 2 
2 2 2 2 2 2 2 2 2 
2 2 2 2 2 2 2 2 2 
2 2 2 2 2 2 2 2 2 
2 2 2 2 2 2 2 2 2 
2 2 2 2 2 2 2 2 2 
2 2 2 2 2 2 2 2 2 
2 2 2 2 2 2 2 2 2 
2 2 2 2 2 2 2 2 2 
2 2 2 2 2 2 2 2 2 
2 2 2 2 2 2 2 2 2 
2 2 2 2 2 2 2 2 2 
2 2 2 2 2 2 2 2 2 
2 2 2 2 2 2 2 2 2 
2 2 2 2 2 2 2 2 2 
2 2 2 2 2 2 2 2 2 
2 2 2 2 2 2 2 2 2 
2 2 2 2 2 2 2 2 2 
2 2 2 2 2 2 2 2 2 
2 2 2 2 2 2 2 2 2 
2 2 2 2 2 2 2 2 2 
2 2 2 2 2 2 2 2 2 
2 2 2 2 2 2 2 2 2 
2 2 2 2 2 2 2 2 2 
2 2 2 2 2 2 2 2 2 
2 2 2 2 2 2 2 2 2 
2 2 2 2 2 2 2 2 2 
2 2 2 2 2 2 2 2 2 
2 2 2 2 2 2 2 2 2 
2 2 2 2 2 2 2 2 2 
2 2 2 2 2 2 2 2 2 
2 2 2 2 2 2 2 2 2 
2 2 2 2 2 2 2 2 2 
2 2 2 2 2 2 2 2 2 
2 2 2 2 2 2 2 2 2 
2 2 2 2 2 2 2 2 2 
2 2 2 2 2 2 2 2 2 
2 2 2 2 2 2 2 2 2 
2 2 2 2 2 2 2 2 2 
2 2 2 2 2 2 2 2 2 
2 2 2 2 2 2 2 2 2 
2 2 2 2 2 2 2 2 2 
2 2 2 2 2 2 2 2 2 
2 2 2 2 2 2 2 2 2 
2 2 2 2 2 2 2 2 2 
2 2 2 2 2 2 2 2 2 
2 2 2 2 2 2 2 2 2 
2 2 2 2 2 2 2 2 2 
2 2 2 2 2 2 2 2 2 
2 2 2 2 2 2 2 2 2 
2 2 2 2 2 2 2 2 2 
2 2 2 2 2 2 2 2 2 
2 2 2 2 2 2 2 2 2 
2 2 2 2 2 2 2 2 2 
2 2 2 2 2 2 2 2 2 
2 2 2 2 2 2 2 2 2 
2 2 2 2 2 2 2 2 2 
2 2 2 2 2 2 2 2 2 
2 2 2 2 2 2 2 2 2 
2 2 2 2 2 2 2 2 2 
2 2 2 2 2 2 2 2 2 
2 2 2 2 2 2 2 2 2 
2 2 2 2 2 2 2 2 2 
2 2 2 2 2 2 2 2 2 
2 2 2 2 2 2 2 2 2 
2 2 2 2 2 2 2 2 2 
2 2 2 2 2 2 2 2 2 
2 2 2 2 2 2 2 2 2 
2 2 2 2 2 2 2 2 2 
2 2 2 2 2 2 2 2 2 
2 2 2 2 2 2 2 2 2 
2 2 2 2 2 2 2 2 2 
2 2 2 2 2 2 2 2 2 
2 2 2 2 2 2 2 2 2 
2 2 2 2 2 2 2 2 2 
2 2 2 2 2 2 2 2 2 
2 2 2 2 2 2 2 2 2 
2 2 2 2 2 2 2 2 2 
2 2 2 2 2 2 2 2 2 
2 2 2 2 2 2 2 2 2 
2 2 2 2 2 2 2 2 2 
2 2 2 2 2 2 2 2 2 
2 2 2 2 2 2 2 2 2 
2 2 2 2 2 2 2 2 2 
2 2 2 2 2 2 2 2 2 
2 2 2 2 2 2 2 2 2 
2 2 2 2 2 2 2 2 2 
2 2 2 2 2 2 2 2 2 
2 2 2 2 2 2 2 2 2 
2 2 2 2 2 2 2 2 2 
2 2 2 2 2 2 2 2 2 
2 2 2 2 2 2 2 2 2 
2 2 2 2 2 2 2 2 2 
2 2 2 2 2 2 2 2 2 
2 2 2 2 2 2 2 2 2 
2 2 2 2 2 2 2 2 2 
2 2 2 2 2 2 2 2 2 
2 2 2 2 2 2 2 2 2 
2 2 2 2 2 2 2 2 2 
2 2 2 2 2 2 2 2 2 
2 2 2 2 2 2 2 2 2 
2 2 2 2 2 2 2 2 2 
2 2 2 2 2 2 2 2 2 
2 2 2 2 2 2 2 2 2 
2 2 2 2 2 2 2 2 2 
2 2 2 2 2 2 2 2 2 
2 2 2 2 2 2 2 2 2 
2 2 2 2 2 2 2 2 2 
2 2 2 2 2 2 2 2 2 
2 2 2 2 2 2 2 2 2 
2 2 2 2 2 2 2 2 2 
2 2 2 2 2 2 2 2 2 
2 2 2 2 2 2 2 2 2 
2 2 2 2 2 2 2 2 2 
2 2 2 2 2 2 2 2 2 
2 2 2 2 2 2 2 2 2 
2 2 2 2 2 2 2 2 2 
2 2 2 2 2 2 2 2 2 
2 2 2 2 2 2 2 2 2 
2 2 2 2 2 2 2 2 2 
2 2 2 2 2 2 2 2 2 
2 2 2 2 2 2 2 2 2 
2 2 2 2 2 2 2 2 2 
2 2 2 2 2 2 2 2 2 
2 2 2 2 2 2 2 2 2 
2 2 2 2 2 2 2 2 2 
2 2 2 2 2 2 2 2 2 
2 2 2 2 2 2 2 2 2 
2 2 2 2 2 2 2 2 2 
2 2 2 2 2 2 2 2 2 
2 2 2 2 2 2 2 2 2 
2 2 2 2 2 2 2 2 2 
2 2 2 2 2 2 2 2 2 
2 2 2 2 2 2 2 2 2 
2 2 2 2 2 2 2 2 2 
2 2 2 2 2 2 2 2 2 
2 2 2 2 2 2 2 2 2 
2 2 2 2 2 2 2 2 2 
2 2 2 2 2 2 2 2 2 
2 2 2 2 2 2 2 2 2 
2 2 2 2 2 2 2 2 2 
2 2 2 2 2 2 2 2 2 
2 2 2 2 2 2 2 2 2 
2 2 2 2 2 2 2 2 2 
2 2 2 2 2 2 2 2 2 
2 2 2 2 2 2 2 2 2 
2 2 2 2 2 2 2 2 2 
2 2 2 2 2 2 2 2 2 
2 2 2 2 2 2 2 2 2 
2 2 2 2 2 2 2 2 2 
2 2 2 2 2 2 2 2 2 
2 2 2 2 2 2 2 2 2 
2 2 2 2 2 2 2 2 2 
2 2 2 2 2 2 2 2 2 
2 2 2 2 2 2 2 2 2 
2 2 2 2 2 2 2 2 2 
2 2 2 2 2 2 2 2 2 
2 2 2 2 2 2 2 2 2 
2 2 2 2 2 2 2 2 2 
2 2 2 2 2 2 2 2 2 
2 2 2 2 2 2 2 2 2 
2 2 2 2 2 2 2 2 2 
2 2 2 2 2 2 2 2 2 
2 2 2 2 2 2 2 2 2 
2 2 2 2 2 2 2 2 2 
2 2 2 2 2 2 2 2 2 
2 2 2 2 2 2 2 2 2 
2 2 2 2 2 2 2 2 2 
2 2 2 2 2 2 2 2 2 
2 2 2 2 2 2 2 2 2 
2 2 2 2 2 2 2 2 2 
2 2 2 2 2 2 2 2 2 
2 2 2 2 2 2 2 2 2 
2 2 2 2 2 2 2 2 2 
2 2 2 2 2 2 2 2 2 
2 2 2 2 2 2 2 2 2 
2 2 2 2 2 2 2 2 2 
2 2 2 2 2 2 2 2 2 
2 2 2 2 2 2 2 2 2 
2 2 2 2 2 2 2 2 2 
2 2 2 2 2 2 2 2 2 
2 2 2 2 2 2 2 2 2 
2 2 2 2 2 2 2 2 2 
2 2 2 2 2 2 2 2 2 
2 2 2 2 2 2 2 2 2 
2 2 2 2 2 2 2 2 2 
2 2 2 2 2 2 2 2 2 
2 2 2 2 2 2 2 2 2 
2 2 2 2 2 2 2 2 2 
2 2 2 2 2 2 2 2 2 
2 2 2 2 2 2 2 2 2 
2 2 2 2 2 2 2 2 2 
2 2 2 2 2 2 2 2 2 
2 2 2 2 2 2 2 2 2 
2 2 2 2 2 2 2 2 2 
2 2 2 2 2 2 2 2 2 
2 2 2 2 2 2 2 2 2 
2 2 2 2 2 2 2 2 2 
2 2 2 2 2 2 2 2 2 
2 2 2 2 2 2 2 2 2 
2 2 2 2 2 2 2 2 2 
2 2 2 2 2 2 2 2 2 
2 2 2 2 2 2 2 2 2 
2 2 2 2 2 2 2 2 2 
2 2 2 2 2 2 2 2 2 
2 2 2 2 2 2 2 2 2 
2 2 2 2 2 2 2 2 2 
2 2 2 2 2 2 2 2 2 
2 2 2 2 2 2 2 2 2 
2 2 2 2 2 2 2 2 2 
2 2 2 2 2 2 2 2 2 
2 2 2 2 2 2 2 2 2 
2 2 2 2 2 2 2 2 2 
2 2 2 2 2 2 2 2 2 
2 2 2 2 2 2 2 2 2 
2 2 2 2 2 2 2 2 2 
2 2 2 2 2 2 2 2 2 
2 2 2 2 2 2 2 2 2 
2 2 2 2 2 2 2 2 2 
2 2 2 2 2 2 2 2 2 
2 2 2 2 2 2 2 2 2 
2 2 2 2 2 2 2 2 2 
2 2 2 2 2 2 2 2 2 
2 2 2 2 2 2 2 2 2 
2 2 2 2 2 2 2 2 2 
2 2 2 2 2 2 2 2 2 
2 2 2 2 2 2 2 2 2 
2 2 2 2 2 2 2 2 2 
2 2 2 2 2 2 2 2 2 
2 2 2 2 2 2 2 2 2 
2 2 2 2 2 2 2 2 2 
2 2 2 2 2 2 2 2 2 
2 2 2 2 2 2 2 2 2 
2 2 2 2 2 2 2 2 2 
2 2 2 2 2 2 2 2 2 
2 2 2 2 2 2 2 2 2 
2 2 2 2 2 2 2 2 2 
2 2 2 2 2 2 2 2 2 
2 2 2 2 2 2 2 2 2 
2 2 2 2 2 2 2 2 2 
2 2 2 2 2 2 2 2 2 
2 2 2 2 2 2 2 2 2 
2 2 2 2 2 2 2 2 2 
2 2 2 2 2 2 2 2 2 
2 2 2 2 2 2 2 2 2 
2 2 2 2 2 2 2 2 2 
2 2 2 2 2 2 2 2 2 
2 2 2 2 2 2 2 2 2 
2 2 2 2 2 2 2 2 2 
2 2 2 2 2 2 2 2 2 
2 2 2 2 2 2 2 2 2 
2 2 2 2 2 2 2 2 2 
2 2 2 2 2 2 2 2 2 
2 2 2 2 2 2 2 2 2 
2 2 2 2 2 2 2 2 2 
2 2 2 2 2 2 2 2 2 
2 2 2 2 2 2 2 2 2 
2 2 2 2 2 2 2 2 2 
2 2 2 2 2 2 2 2 2 
2 2 2 2 2 2 2 2 2 
2 2 2 2 2 2 2 2 2 
2 2 2 2 2 2 2 2 2 
2 2 2 2 2 2 2 2 2 
2 2 2 2 2 2 2 2 2 
2 2 2 2 2 2 2 2 2 
2 2 2 2 2 2 2 2 2 
2 2 2 2 2 2 2 2 2 
2 2 2 2 2 2 2 2 2 
2 2 2 2 2 2 2 2 2 
2 2 2 2 2 2 2 2 2 
2 2 2 2 2 2 2 2 2 
2 2 2 2 2 2 2 2 2 
2 2 2 2 2 2 2 2 2 
2 2 2 2 2 2 2 2 2 
2 2 2 2 2 2 2 2 2 
2 2 2 2 2 2 2 2 2 
2 2 2 2 2 2 2 2 2 
2 2 2 2 2 2 2 2 2 
2 2 2 2 2 2 2 2 2 
2 2 2 2 2 2 2 2 2 
2 2 2 2 2 2 2 2 2 
2 2 2 2 2 2 2 2 2 
2 2 2 2 2 2 2 2 2 
2 2 2 2 2 2 2 2 2 
2 2 2 2 2 2 2 2 2 
2 2 2 2 2 2 2 2 2 
2 2 2 2 2 2 2 2 2 
2 2 2 2 2 2 2 2 2 
2 2 2 2 2 2 2 2 2 
2 2 2 2 2 2 2 2 2 
2 2 2 2 2 2 2 2 2 
2 2 2 2 2 2 2 2 2 
2 2 2 2 2 2 2 2 2 
2 2 2 2 2 2 2 2 2 
2 2 2 2 2 2 2 2 2 
2 2 2 2 2 2 2 2 2 
2 2 2 2 2 2 2 2 2 
2 2 2 2 2 2 2 2 2 
2 2 2 2 2 2 2 2 2 
2 2 2 2 2 2 2 2 2 
2 2 2 2 2 2 2 2 2 
2 2 2 2 2 2 2 2 2 
2 2 2 2 2 2 2 2 2 
2 2 2 2 2 2 2 2 2 
2 2 2 2 2 2 2 2 2 
2 2 2 2 2 2 2 2 2 
2 2 2 2 2 2 2 2 2 
2 2 2 2 2 2 2 2 2 
2 2 2 2 2 2 2 2 2 
2 2 2 2 2 2 2 2 2 
2 2 2 2 2 2 2 2 2 
2 2 2 2 2 2 2 2 2 
2 2 2 2 2 2 2 2 2 
2 2 2 2 2 2 2 2 2 
2 2 2 2 2 2 2 2 2 
2 2 2 2 2 2 2 2 2 
2 2 2 2 2 2 2 2 2 
2 2 2 2 2 2 2 2 2 
2 2 2 2 2 2 2 2 2 
2 2 2 2 2 2 2 2 2 
2 2 2 2 2 2 2 2 2 
2 2 2 2 2 2 2 2 2 
2 2 2 2 2 2 2 2 2 
2 2 2 2 2 2 2 2 2 
2 2 2 2 2 2 2 2 2 
2 2 2 2 2 2 2 2 2 
2 2 2 2 2 2 2 2 2 
2 2 2 2 2 2 2 2 2 
2 2 2 2 2 2 2 2 2 
2 2 2 2 2 2 2 2 2 
2 2 2 2 2 2 2 2 2 
2 2 2 2 2 2 2 2 2 
2 2 2 2 2 2 2 2 2 
2 2 2 2 2 2 2 2 2 
2 2 2 2 2 2 2 2 2 
2 2 2 2 2 2 2 2 2 
2 2 2 2 2 2 2 2 2 
2 2 2 2 2 2 2 2 2 
2 2 2 2 2 2 2 2 2 
2 2 2 2 2 2 2 2 2 
2 2 2 2 2 2 2 2 2 
2 2 2 2 2 2 2 2 2 
2 2 2 2 2 2 2 2 2 
2 2 2 2 2 2 2 2 2 
2 2 2 2 2 2 2 2 2 
2 2 2 2 2 2 2 2 2 
2 2 2 2 2 2 2 2 2 
2 2 2 2 2 2 2 2 2 
2 2 2 2 2 2 2 2 2 
2 2 2 2 2 2 2 2 2 
2 2 2 2 2 2 2 2 2 
2 2 2 2 2 2 2 2 2 
2 2 2 2 2 2 2 2 2 
2 2 2 2 2 2 2 2 2 
2 2 2 2 2 2 2 2 2 
2 2 2 2 2 2 2 2 2 
2 2 2 2 2 2 2 2 2 
2 2 2 2 2 2 2 2 2 
2 2 2 2 2 2 2 2 2 
2 2 2 2 2 2 2 2 2 
2 2 2 2 2 2 2 2 2 
2 2 2 2 2 2 2 2 2 
2 2 2 2 2 2 2 2 2 
2 2 2 2 2 2 2 2 2 
2 2 2 2 2 2 2 2 2 
2 2 2 2 2 2 2 2 2 
2 2 2 2 2 2 2 2 2 
2 2 2 2 2 2 2 2 2 
2 2 2 2 2 2 2 2 2 
2 2 2 2 2 2 2 2 2 
2 2 2 2 2 2 2 2 2 
2 2 2 2 2 2 2 2 2 
2 2 2 2 2 2 2 2 2 
2 2 2 2 2 2 2 2 2 
2 2 2 2 2 2 2 2 2 
2 2 2 2 2 2 2 2 2 
2 2 2 2 2 2 2 2 2 
2 2 2 2 2 2 2 2 2 
2 2 2 2 2 2 2 2 2 
2 2 2 2 2 2 2 2 2 
2 2 2 2 2 2 2 2 2 
2 2 2 2 2 2 2 2 2 
2 2 2 2 2 2 2 2 2 
2 2 2 2 2 2 2 2 2 
2 2 2 2 2 2 2 2 2 
2 2 2 2 2 2 2 2 2 
2 2 2 2 2 2 2 2 2 
2 2 2 2 2 2 2 2 2 
2 2 2 2 2 2 2 2 2 
2 2 2 2 2 2 2 2 2 
2 2 2 2 2 2 2 2 2 
2 2 2 2 2 2 2 2 2 
2 2 2 2 2 2 2 2 2 
2 2 2 2 2 2 2 2 2 
2 2 2 2 2 2 2 2 2 
2 2 2 2 2 2 2 2 2 
2 2 2 2 2 2 2 2 2 
2 2 2 2 2 2 3 3 3 
3 3 3 3 3 3 3 3 3 
3 3 3 3 3 3 3 3 3 
3 3 3 3 3 3 3 3 3 
3 3 3 3 3 3 3 3 3 
3 3 3 3 3 3 3 3 3 
3 3 3 3 3 3 3 3 3 
3 3 3 3 3 3 3 3 3 
3 3 3 3 3 3 3 3 3 
3 3 3 3 3 3 3 3 3 
3 3 3 3 3 3 3 3 3 
3 3 3 3 3 3 3 3 3 
3 3 3 3 3 3 3 3 3 
3 3 3 3 3 4 4 4 4 
4 4 4 4 4 4 4 4 4 
4 4 4 4 4 4 4 4 4 
4 4 4 4 4 4 4 4 4 
4 4 4 4 4 4 4 4 4 
4 4 4 4 4 4 4 4 4 
4 4 4 4 4 4 4 4 4 
4 4 4 4 4 4 4 4 4 
4 4 4 4 4 4 4 4 4 
4 4 4 4 4 4 4 4 4 
4 4 4 4 4 4 4 4 4 
4 4 4 4 4 4 4 4 4 
4 4 4 4 4 4 4 4 4 
4 4 4 4 4 4 4 4 4 
4 4 4 4 4 4 4 4 4 
4 4 4 4 4 4 4 4 4 
4 4 4 4 4 4 4 4 4 
4 4 4 4 4 4 4 4 4 
4 4 4 4 4 4 4 4 4 
4 4 4 4 4 4 4 4 4 
4 4 4 4 4 4 4 4 4 
4 4 4 4 4 4 4 4 4 
4 4 4 4 4 4 4 4 4 
4 4 4 4 4 4 4 4 4 
4 4 4 4 4 4 4 4 4 
4 4 4 4 4 4 4 4 4 
4 4 4 4 4 4 4 4 4 
4 4 4 4 4 4 4 4 4 
4 4 4 4 4 4 4 4 4 
4 4 4 4 4 4 4 4 4 
4 4 4 4 4 4 4 4 4 
4 4 4 4 4 4 4 4 4 
4 4 4 4 4 4 4 4 4 
4 4 4 4 4 4 4 4 4 
4 4 4 4 4 4 4 4 4 
4 4 4 4 4 4 4 4 4 
4 4 4 4 4 4 4 4 4 
4 4 4 4 4 4 4 4 4 
4 4 4 4 4 4 4 4 4 
4 4 4 4 4 4 4 4 4 
4 4 4 4 4 4 4 4 4 
4 4 4 4 4 4 4 4 4 
4 4 4 4 4 4 4 4 4 
4 4 4 4 4 4 4 4 4 
4 4 4 4 4 4 4 4 4 
4 4 4 4 4 4 4 4 4 
4 4 4 4 4 4 4 4 4 
4 4 4 4 4 4 4 4 4 
4 4 4 4 4 4 4 4 4 
4 4 4 4 4 4 4 4 4 
4 4 4 4 4 4 4 4 4 
4 4 4 4 4 4 4 4 4 
4 4 4 4 4 4 4 4 4 
4 4 4 4 4 4 4 4 4 
4 4 4 4 4 4 4 4 4 
4 4 4 4 4 4 4 4 4 
4 4 4 4 4 4 4 4 4 
4 4 4 4 4 4 4 4 4 
4 4 4 4 4 4 4 4 4 
4 4 4 4 4 4 4 4 4 
4 4 4 4 4 4 4 4 4 
4 4 4 4 4 4 4 4 4 
4 4 4 4 4 4 4 4 4 
4 4 4 4 4 4 4 4 4 
4 4 4 4 4 4 4 4 4 
4 4 4 4 4 4 4 4 4 
4 4 4 4 4 4 4 4 4 
4 4 4 4 4 4 4 4 4 
4 4 4 4 4 4 4 4 4 
4 4 4 4 4 4 4 4 4 
4 4 4 4 4 4 4 4 4 
4 4 4 4 4 4 4 4 4 
4 4 4 4 4 4 4 4 4 
4 4 4 4 4 4 4 4 4 
4 4 4 4 4 4 4 4 4 
4 4 4 4 4 4 4 4 4 
4 4 4 4 4 4 4 4 4 
4 4 4 4 4 4 4 4 4 
4 4 4 4 4 4 4 4 4 
4 4 4 4 4 4 4 4 4 
4 4 4 4 4 4 4 4 4 
4 4 4 4 4 4 4 4 4 
4 4 4 4 4 4 4 4 4 
4 4 4 4 4 4 4 4 4 
4 4 4 4 4 4 4 4 4 
4 4 4 4 4 4 4 4 4 
4 4 4 4 4 4 4 4 4 
4 4 4 4 4 4 4 4 4 
4 4 4 4 4 4 4 4 4 
4 4 4 4 4 4 4 4 4 
4 4 4 4 4 4 4 4 4 
4 4 4 4 4 4 4 4 4 
4 4 4 4 4 4 4 4 4 
4 4 4 4 4 4 4 4 4 
4 4 4 4 4 4 4 4 4 
4 4 4 4 4 4 4 4 4 
4 4 4 4 4 4 4 4 4 
4 4 4 4 4 4 4 4 4 
4 4 4 4 4 4 4 4 4 
4 4 4 4 4 4 4 4 4 
4 4 4 4 4 4 4 4 4 
4 4 4 4 4 4 4 4 4 
4 4 4 4 4 4 4 4 4 
4 4 4 4 4 4 4 4 4 
4 4 4 4 4 4 4 4 4 
4 4 4 4 4 4 4 4 4 
4 4 4 4 4 4 4 4 4 
4 4 4 4 4 4 4 4 4 
4 4 4 4 4 4 4 4 4 
4 4 4 4 4 4 4 4 4 
4 4 4 4 4 4 4 4 4 
4 4 4 4 4 4 4 4 4 
4 4 4 4 4 4 4 4 4 
4 4 4 4 4 4 4 4 4 
4 4 4 4 4 4 4 4 4 
4 4 4 4 4 4 4 4 4 
4 4 4 4 4 4 4 4 4 
4 4 4 4 4 4 4 4 4 
4 4 4 4 4 4 4 4 4 
4 4 4 4 4 4 4 4 4 
4 4 4 4 4 4 4 4 4 
4 4 4 4 4 4 4 4 4 
4 4 4 4 4 4 4 4 4 
4 4 4 4 4 4 4 4 4 
4 4 4 4 4 4 4 4 4 
4 4 4 4 4 4 4 4 4 
4 4 4 4 4 4 4 4 4 
4 4 4 4 4 4 4 4 4 
4 4 4 4 4 4 4 4 4 
4 4 4 4 4 4 4 4 4 
4 4 4 4 4 4 4 4 4 
4 4 4 4 4 4 4 4 4 
4 4 4 4 4 4 4 4 4 
4 4 4 4 4 4 4 4 4 
4 4 4 4 4 4 4 4 4 
4 4 4 4 4 4 4 4 4 
4 4 4 4 4 4 4 4 4 
4 4 4 4 4 4 4 4 4 
4 4 4 4 4 4 4 4 4 
4 4 4 4 4 4 4 4 4 
4 4 4 4 4 4 4 4 4 
4 4 4 4 4 4 4 4 4 
4 4 4 4 4 4 4 4 4 
4 4 4 4 4 4 4 4 4 
4 4 4 4 4 4 4 4 4 
4 4 4 4 4 4 4 4 4 
4 4 4 4 4 4 4 4 4 
4 4 4 4 4 4 4 4 4 
4 4 4 4 4 4 4 4 4 
4 4 4 4 4 4 4 4 4 
4 4 4 4 4 4 4 4 4 
4 4 4 4 4 4 4 4 4 
4 4 4 4 4 4 4 4 4 
4 4 4 4 4 4 4 4 4 
4 4 4 4 4 4 4 4 4 
4 4 4 4 4 4 4 4 4 
4 4 4 4 4 4 4 4 4 
4 4 4 4 4 4 4 4 4 
4 4 4 4 4 4 4 4 4 
4 4 4 4 4 4 4 4 4 
4 4 4 4 4 4 4 4 4 
4 4 4 4 4 4 4 4 4 
4 4 4 4 4 4 4 4 4 
4 4 4 4 4 4 
NORMALS normals float
0.190344 0.561577 -0.805233 0.18401 0.599698 -0.778783 0.239042 0.567487 -0.78792 
-0.225535 0.614088 -0.756327 -0.230631 0.638999 -0.733819 -0.259586 0.637908 -0.725044 
0.49226 0.128812 -0.860865 0.485436 0.243887 -0.839566 0.517079 0.097012 -0.850422 
0.167668 0.103406 -0.980405 -0.0742785 0.160117 -0.984299 -0.388277 0.541185 -0.745895 
-0.278194 0.316835 -0.906765 -0.600316 0.381278 -0.703027 0.575109 -0.262498 -0.774819 
0.521344 -0.472589 -0.710535 0.230423 -0.39127 -0.890962 -0 -0.272533 -0.962146 
-0.248448 -0.319514 -0.914431 -0.594527 -0.383334 -0.706818 0.313379 -0.589283 -0.744674 
-0 -0.630046 -0.776558 -0.330218 -0.554317 -0.763995 0.30321 0.550444 -0.777866 
0.297645 0.673666 -0.676447 0.43663 0.479972 -0.760908 0.358989 0.570034 -0.739046 
0.324255 0.731764 -0.599484 0.0360143 0.84761 -0.529396 -0.36472 0.848352 -0.383769 
-0.527272 0.762476 -0.374987 -0.554844 0.79211 -0.254381 -0.592388 0.773897 -0.223966 
0.511225 -0.259581 -0.819309 0.512574 0.192952 -0.836682 0.529163 -0.25811 -0.808311 
0.497607 -0.141975 -0.855704 -0.766572 0.404514 -0.498734 -0.834545 0.542641 -0.0952673 
-0.924429 0.37492 -0.06976 0.509341 -0.297528 -0.807496 0.498981 -0.577739 -0.645938 
0.575779 -0.50713 -0.641325 0.523232 -0.681662 -0.511434 -0.764676 -0.403513 -0.502442 
-0.923514 -0.374549 -0.0826727 0.578184 -0.731602 -0.361194 0.431628 -0.760545 -0.485045 
0.495836 -0.775081 -0.391659 -0 -0.722227 -0.691656 -0.450778 -0.776363 -0.440521 
-0.540625 -0.785318 -0.301663 -0.832351 -0.541214 -0.119497 0.447272 -0.78566 -0.427418 
-0 -0.871212 -0.490906 -0.473456 -0.809676 -0.346791 0.349913 0.849091 -0.395735 
0.340817 0.888717 -0.306636 0.333491 0.880397 -0.337173 0.0294724 0.857355 -0.513881 
-0.0830309 0.991128 -0.103782 -0.512521 0.856433 0.0620076 0.715633 0.359085 -0.599105 
0.696108 0.397776 -0.597669 0.732836 0.356611 -0.579465 0.454013 0.475158 -0.753722 
0.235352 0.814172 -0.530785 0.275184 0.883902 -0.378141 -0.527607 0.846466 0.0715941 
-0.65152 0.721045 0.235832 -0.672243 0.693753 0.258449 0.786864 -0.233073 -0.571421 
0.821136 -0.231792 -0.521544 -0.832768 0.365737 0.415613 -0.844159 0.329949 0.422527 
0.773165 -0.324793 -0.544725 0.391447 -0.738742 -0.548661 0.435213 -0.73054 -0.526214 
0.435945 -0.727187 -0.530237 -0.879005 -0.279545 0.386271 0.375527 -0.774203 -0.509498 
0.316724 -0.836663 -0.446857 0.529902 -0.747481 -0.400595 0.550153 -0.731386 -0.402996 
-0.729311 -0.678779 0.0858207 -0.868641 -0.337501 0.362707 0.47693 -0.731051 -0.487957 
-0.137373 -0.925549 -0.352828 -0.644275 -0.764786 -0.00351488 0.445768 0.734757 -0.511295 
0.442754 0.743672 -0.500921 0.466399 0.725841 -0.505595 0.0468817 0.874539 -0.482683 
0.00546568 0.890646 -0.454665 0.111181 0.912136 -0.39452 0.0772612 0.915848 -0.394022 
0.0756805 0.995211 -0.0618638 -0.336111 0.877452 0.342211 -0.434726 0.806032 0.401654 
0.936103 0.15764 -0.314422 -0.57946 0.634317 0.51173 -0.65334 0.663085 0.36533 
-0.606395 0.573962 0.550321 0.945891 -0.208882 -0.24831 -0.656401 0.434573 0.616672 
-0.830717 0.328557 0.449399 -0.685166 0.326835 0.650943 0.673883 -0.659255 -0.333564 
0.684941 -0.654774 -0.319572 -0.864931 -0.261241 0.42854 -0.765548 -0.0799502 0.638392 
0.671192 -0.669537 -0.318155 0.356197 -0.896646 -0.262963 0.425418 -0.806549 -0.410486 
0.546291 -0.712462 -0.440413 0.48217 -0.749112 -0.454251 -0.760417 -0.466057 0.45228 
0.573652 -0.636528 -0.515514 0.377999 -0.794044 -0.476037 0.464709 -0.754498 -0.463442 
-0.193934 -0.937998 -0.287315 -0.532777 -0.828344 0.173189 -0.749551 -0.499281 0.434617 
0.238722 -0.913655 -0.329008 -0.484988 -0.862806 0.142661 0.444474 0.886842 -0.126312 
0.748097 0.650006 -0.133581 0.0353069 0.981611 -0.187596 -0.109078 0.972905 -0.203857 
-0.371178 0.917387 0.143624 -0.458511 0.784264 0.41797 -0.518273 0.789898 0.327803 
0.976802 0.0524219 -0.207628 -0.605508 0.564999 0.560479 -0.587206 0.549662 0.594189 
-0.596847 0.496517 0.630274 0.942951 -0.203071 -0.263829 -0.592931 0.407962 0.694263 
-0.667612 0.332314 0.666229 -0.608108 0.347522 0.713746 0.740409 -0.654202 -0.154317 
-0.727776 -0.0348671 0.684928 -0.702068 0.0257511 0.711644 0.64678 -0.750796 -0.134092 
0.467809 -0.865904 -0.177103 0.51672 -0.764165 -0.386072 0.556309 -0.781537 -0.282348 
-0.752407 -0.448905 0.482046 -0.726768 -0.321195 0.607159 0.614865 -0.721285 -0.318889 
0.524761 -0.766001 -0.371308 0.517085 -0.804861 -0.291243 -0.558322 -0.788326 0.258492 
-0.531296 -0.777668 0.33609 -0.704367 -0.463916 0.53726 0.462163 -0.846609 -0.263927 
-0.225182 -0.959601 0.1687 0.516707 0.855568 0.0318914 0.690012 0.722637 0.0409741 
0.0816917 0.996618 0.00893868 -0.244768 0.958003 0.149397 -0.626033 0.642727 0.44157 
-0.626396 0.640931 0.443662 0.925151 0.263347 -0.273393 -0.629947 0.63547 0.446481 
-0.656893 0.440148 0.612178 -0.736505 0.3738 0.563767 0.914082 -0.190579 -0.357958 
-0.722549 0.4765 0.50087 -0.728934 0.476985 0.491061 -0.599865 0.365772 0.711598 
0.710088 -0.695424 -0.110276 -0.732497 0.474965 0.487705 -0.750801 0.0992566 0.653028 
-0.83716 0.252324 0.485278 0.613171 -0.781752 -0.113513 0.52778 -0.802931 -0.277037 
0.547564 -0.78654 -0.285531 -0.780353 -0.278147 0.560074 -0.873116 -0.205864 0.441915 
0.59809 -0.764079 -0.241808 0.405383 -0.909474 -0.0923156 -0.548639 -0.756083 0.356839 
0.241512 -0.970349 0.00971311 -0.513298 -0.785105 0.346605 0.458509 0.88076 0.118452 
0.59644 0.796625 0.0982251 -0.0800737 0.965765 0.246751 -0.521025 0.676067 0.521025 
-0.541298 0.646045 0.538166 0.921141 0.320145 -0.221376 0.881079 0.459767 -0.110972 
0.916768 0.370902 -0.148216 -0.697226 0.503468 0.510291 -0.668878 0.527223 0.524059 